[Molden Format]
[Title]
 Molden file created by orca_2mkl for BaseName=input4cpu

[Atoms] AU
O    1   8          9.7344783153         7.0882539569         0.9785935697 
C    2   6          8.9337498649         4.9266053200         0.6068332821 
C    3   6         10.5302757701         2.7031248221         0.5864358798 
C    4   6          9.6061480849         0.3215666563         0.1753473049 
C    5   6         11.0836714455        -2.0283518381         0.1250477685 
C    6   6          9.8857001114        -4.3723069651        -0.3137161709 
C    7   6         11.2612434565        -6.6033616153        -0.3663779685 
C    8   6         13.8940090003        -6.5733083208         0.0195788466 
O    9   8         15.0769088738        -8.8275242807        -0.0630971251 
C   10   6         17.7347119809        -8.9314311732         0.3107393595 
C   11   6         15.1155375322        -4.2525118658         0.4588053443 
C   12   6         13.7144028933        -2.0240555161         0.5075243193 
O   13   8          7.1181354352        -0.0757449444        -0.2401464899 
C   14   6          5.4429336548         1.8874255503        -0.2661865981 
C   15   6          6.2240890025         4.3924899527         0.1390982638 
C   16   6          4.4192611691         6.3265792409         0.0896704173 
C   17   6          1.8726609289         5.7854349874        -0.3557571424 
O   18   8          0.2587300198         7.7703863820        -0.3693248594 
C   19   6         -2.3513065021         7.3317267895        -0.8010706030 
C   20   6          1.1227646124         3.2541657019        -0.7602025885 
C   21   6          2.9037213174         1.3185972048        -0.7145034050 
H   22   1         12.5413091995         2.9875360664         0.9183142382 
H   23   1          7.8491546079        -4.4336346906        -0.6162467109 
H   24   1         10.3338417731        -8.4153391186        -0.7062507075 
H   25   1         18.2669000497       -10.9302093006         0.1611061371 
H   26   1         18.7473575435        -7.8356720611        -1.1447501463 
H   27   1         18.2625439083        -8.2149639863         2.1956097366 
H   28   1         17.1499723859        -4.1648009282         0.7632274733 
H   29   1         14.7119240817        -0.2530660625         0.8516214551 
H   30   1          5.0254731778         8.2717538454         0.4043967038 
H   31   1         -3.2762704725         9.1867787411        -0.7248766963 
H   32   1         -2.6824854109         6.4760608991        -2.6738879487 
H   33   1         -3.1703456691         6.0955769093         0.6652538683 
H   34   1         -0.8503390085         2.7814070323        -1.1119222088 
H   35   1          2.3424002848        -0.6422647698        -1.0249038519 
[GTO]
  1 0
s   5 1.0 
     2266.1767785000        -1.2615859742
      340.8701019100        -2.2748500410
       77.3631351670        -3.3479623295
       21.4796449400        -3.3299980531
        6.6589433124        -1.3203828288
s   1 1.0 
        0.8097597567         0.6083832301
s   1 1.0 
        0.2553077223         0.2559811911
p   3 1.0 
       17.7215043170         3.2460107647
        3.8635505440         2.5734959178
        1.0480920883         1.1208372892
p   1 1.0 
        0.2764154441         0.2856886381
d   1 1.0 
        1.2000000000         3.9222679946

  2 0
s   5 1.0 
     1238.4016938000         0.8208956682
      186.2900499200         1.4766449896
       42.2511763460         2.1526124058
       11.6765579320         2.1081722461
        3.5930506482         0.8290999933
s   1 1.0 
        0.4024514736         0.3601183351
s   1 1.0 
        0.1309018267         0.1551027052
p   3 1.0 
        9.4680970621         1.3467645142
        2.0103545142         1.0678070931
        0.5477100471         0.5108735714
p   1 1.0 
        0.1526861379         0.1360471976
d   1 1.0 
        0.8000000000         1.9292013661

  3 0
s   5 1.0 
     1238.4016938000         0.8208956682
      186.2900499200         1.4766449896
       42.2511763460         2.1526124058
       11.6765579320         2.1081722461
        3.5930506482         0.8290999933
s   1 1.0 
        0.4024514736         0.3601183351
s   1 1.0 
        0.1309018267         0.1551027052
p   3 1.0 
        9.4680970621         1.3467645142
        2.0103545142         1.0678070931
        0.5477100471         0.5108735714
p   1 1.0 
        0.1526861379         0.1360471976
d   1 1.0 
        0.8000000000         1.9292013661

  4 0
s   5 1.0 
     1238.4016938000         0.8208956682
      186.2900499200         1.4766449896
       42.2511763460         2.1526124058
       11.6765579320         2.1081722461
        3.5930506482         0.8290999933
s   1 1.0 
        0.4024514736         0.3601183351
s   1 1.0 
        0.1309018267         0.1551027052
p   3 1.0 
        9.4680970621         1.3467645142
        2.0103545142         1.0678070931
        0.5477100471         0.5108735714
p   1 1.0 
        0.1526861379         0.1360471976
d   1 1.0 
        0.8000000000         1.9292013661

  5 0
s   5 1.0 
     1238.4016938000         0.8208956682
      186.2900499200         1.4766449896
       42.2511763460         2.1526124058
       11.6765579320         2.1081722461
        3.5930506482         0.8290999933
s   1 1.0 
        0.4024514736         0.3601183351
s   1 1.0 
        0.1309018267         0.1551027052
p   3 1.0 
        9.4680970621         1.3467645142
        2.0103545142         1.0678070931
        0.5477100471         0.5108735714
p   1 1.0 
        0.1526861379         0.1360471976
d   1 1.0 
        0.8000000000         1.9292013661

  6 0
s   5 1.0 
     1238.4016938000         0.8208956682
      186.2900499200         1.4766449896
       42.2511763460         2.1526124058
       11.6765579320         2.1081722461
        3.5930506482         0.8290999933
s   1 1.0 
        0.4024514736         0.3601183351
s   1 1.0 
        0.1309018267         0.1551027052
p   3 1.0 
        9.4680970621         1.3467645142
        2.0103545142         1.0678070931
        0.5477100471         0.5108735714
p   1 1.0 
        0.1526861379         0.1360471976
d   1 1.0 
        0.8000000000         1.9292013661

  7 0
s   5 1.0 
     1238.4016938000         0.8208956682
      186.2900499200         1.4766449896
       42.2511763460         2.1526124058
       11.6765579320         2.1081722461
        3.5930506482         0.8290999933
s   1 1.0 
        0.4024514736         0.3601183351
s   1 1.0 
        0.1309018267         0.1551027052
p   3 1.0 
        9.4680970621         1.3467645142
        2.0103545142         1.0678070931
        0.5477100471         0.5108735714
p   1 1.0 
        0.1526861379         0.1360471976
d   1 1.0 
        0.8000000000         1.9292013661

  8 0
s   5 1.0 
     1238.4016938000         0.8208956682
      186.2900499200         1.4766449896
       42.2511763460         2.1526124058
       11.6765579320         2.1081722461
        3.5930506482         0.8290999933
s   1 1.0 
        0.4024514736         0.3601183351
s   1 1.0 
        0.1309018267         0.1551027052
p   3 1.0 
        9.4680970621         1.3467645142
        2.0103545142         1.0678070931
        0.5477100471         0.5108735714
p   1 1.0 
        0.1526861379         0.1360471976
d   1 1.0 
        0.8000000000         1.9292013661

  9 0
s   5 1.0 
     2266.1767785000        -1.2615859742
      340.8701019100        -2.2748500410
       77.3631351670        -3.3479623295
       21.4796449400        -3.3299980531
        6.6589433124        -1.3203828288
s   1 1.0 
        0.8097597567         0.6083832301
s   1 1.0 
        0.2553077223         0.2559811911
p   3 1.0 
       17.7215043170         3.2460107647
        3.8635505440         2.5734959178
        1.0480920883         1.1208372892
p   1 1.0 
        0.2764154441         0.2856886381
d   1 1.0 
        1.2000000000         3.9222679946

 10 0
s   5 1.0 
     1238.4016938000         0.8208956682
      186.2900499200         1.4766449896
       42.2511763460         2.1526124058
       11.6765579320         2.1081722461
        3.5930506482         0.8290999933
s   1 1.0 
        0.4024514736         0.3601183351
s   1 1.0 
        0.1309018267         0.1551027052
p   3 1.0 
        9.4680970621         1.3467645142
        2.0103545142         1.0678070931
        0.5477100471         0.5108735714
p   1 1.0 
        0.1526861379         0.1360471976
d   1 1.0 
        0.8000000000         1.9292013661

 11 0
s   5 1.0 
     1238.4016938000         0.8208956682
      186.2900499200         1.4766449896
       42.2511763460         2.1526124058
       11.6765579320         2.1081722461
        3.5930506482         0.8290999933
s   1 1.0 
        0.4024514736         0.3601183351
s   1 1.0 
        0.1309018267         0.1551027052
p   3 1.0 
        9.4680970621         1.3467645142
        2.0103545142         1.0678070931
        0.5477100471         0.5108735714
p   1 1.0 
        0.1526861379         0.1360471976
d   1 1.0 
        0.8000000000         1.9292013661

 12 0
s   5 1.0 
     1238.4016938000         0.8208956682
      186.2900499200         1.4766449896
       42.2511763460         2.1526124058
       11.6765579320         2.1081722461
        3.5930506482         0.8290999933
s   1 1.0 
        0.4024514736         0.3601183351
s   1 1.0 
        0.1309018267         0.1551027052
p   3 1.0 
        9.4680970621         1.3467645142
        2.0103545142         1.0678070931
        0.5477100471         0.5108735714
p   1 1.0 
        0.1526861379         0.1360471976
d   1 1.0 
        0.8000000000         1.9292013661

 13 0
s   5 1.0 
     2266.1767785000        -1.2615859742
      340.8701019100        -2.2748500410
       77.3631351670        -3.3479623295
       21.4796449400        -3.3299980531
        6.6589433124        -1.3203828288
s   1 1.0 
        0.8097597567         0.6083832301
s   1 1.0 
        0.2553077223         0.2559811911
p   3 1.0 
       17.7215043170         3.2460107647
        3.8635505440         2.5734959178
        1.0480920883         1.1208372892
p   1 1.0 
        0.2764154441         0.2856886381
d   1 1.0 
        1.2000000000         3.9222679946

 14 0
s   5 1.0 
     1238.4016938000         0.8208956682
      186.2900499200         1.4766449896
       42.2511763460         2.1526124058
       11.6765579320         2.1081722461
        3.5930506482         0.8290999933
s   1 1.0 
        0.4024514736         0.3601183351
s   1 1.0 
        0.1309018267         0.1551027052
p   3 1.0 
        9.4680970621         1.3467645142
        2.0103545142         1.0678070931
        0.5477100471         0.5108735714
p   1 1.0 
        0.1526861379         0.1360471976
d   1 1.0 
        0.8000000000         1.9292013661

 15 0
s   5 1.0 
     1238.4016938000         0.8208956682
      186.2900499200         1.4766449896
       42.2511763460         2.1526124058
       11.6765579320         2.1081722461
        3.5930506482         0.8290999933
s   1 1.0 
        0.4024514736         0.3601183351
s   1 1.0 
        0.1309018267         0.1551027052
p   3 1.0 
        9.4680970621         1.3467645142
        2.0103545142         1.0678070931
        0.5477100471         0.5108735714
p   1 1.0 
        0.1526861379         0.1360471976
d   1 1.0 
        0.8000000000         1.9292013661

 16 0
s   5 1.0 
     1238.4016938000         0.8208956682
      186.2900499200         1.4766449896
       42.2511763460         2.1526124058
       11.6765579320         2.1081722461
        3.5930506482         0.8290999933
s   1 1.0 
        0.4024514736         0.3601183351
s   1 1.0 
        0.1309018267         0.1551027052
p   3 1.0 
        9.4680970621         1.3467645142
        2.0103545142         1.0678070931
        0.5477100471         0.5108735714
p   1 1.0 
        0.1526861379         0.1360471976
d   1 1.0 
        0.8000000000         1.9292013661

 17 0
s   5 1.0 
     1238.4016938000         0.8208956682
      186.2900499200         1.4766449896
       42.2511763460         2.1526124058
       11.6765579320         2.1081722461
        3.5930506482         0.8290999933
s   1 1.0 
        0.4024514736         0.3601183351
s   1 1.0 
        0.1309018267         0.1551027052
p   3 1.0 
        9.4680970621         1.3467645142
        2.0103545142         1.0678070931
        0.5477100471         0.5108735714
p   1 1.0 
        0.1526861379         0.1360471976
d   1 1.0 
        0.8000000000         1.9292013661

 18 0
s   5 1.0 
     2266.1767785000        -1.2615859742
      340.8701019100        -2.2748500410
       77.3631351670        -3.3479623295
       21.4796449400        -3.3299980531
        6.6589433124        -1.3203828288
s   1 1.0 
        0.8097597567         0.6083832301
s   1 1.0 
        0.2553077223         0.2559811911
p   3 1.0 
       17.7215043170         3.2460107647
        3.8635505440         2.5734959178
        1.0480920883         1.1208372892
p   1 1.0 
        0.2764154441         0.2856886381
d   1 1.0 
        1.2000000000         3.9222679946

 19 0
s   5 1.0 
     1238.4016938000         0.8208956682
      186.2900499200         1.4766449896
       42.2511763460         2.1526124058
       11.6765579320         2.1081722461
        3.5930506482         0.8290999933
s   1 1.0 
        0.4024514736         0.3601183351
s   1 1.0 
        0.1309018267         0.1551027052
p   3 1.0 
        9.4680970621         1.3467645142
        2.0103545142         1.0678070931
        0.5477100471         0.5108735714
p   1 1.0 
        0.1526861379         0.1360471976
d   1 1.0 
        0.8000000000         1.9292013661

 20 0
s   5 1.0 
     1238.4016938000         0.8208956682
      186.2900499200         1.4766449896
       42.2511763460         2.1526124058
       11.6765579320         2.1081722461
        3.5930506482         0.8290999933
s   1 1.0 
        0.4024514736         0.3601183351
s   1 1.0 
        0.1309018267         0.1551027052
p   3 1.0 
        9.4680970621         1.3467645142
        2.0103545142         1.0678070931
        0.5477100471         0.5108735714
p   1 1.0 
        0.1526861379         0.1360471976
d   1 1.0 
        0.8000000000         1.9292013661

 21 0
s   5 1.0 
     1238.4016938000         0.8208956682
      186.2900499200         1.4766449896
       42.2511763460         2.1526124058
       11.6765579320         2.1081722461
        3.5930506482         0.8290999933
s   1 1.0 
        0.4024514736         0.3601183351
s   1 1.0 
        0.1309018267         0.1551027052
p   3 1.0 
        9.4680970621         1.3467645142
        2.0103545142         1.0678070931
        0.5477100471         0.5108735714
p   1 1.0 
        0.1526861379         0.1360471976
d   1 1.0 
        0.8000000000         1.9292013661

 22 0
s   3 1.0 
       13.0107010000         0.1634903809
        1.9622572000         0.2773515510
        0.4445379600         0.3157501452
s   1 1.0 
        0.1219496200         0.1470772262
p   1 1.0 
        0.8000000000         1.0784563492

 23 0
s   3 1.0 
       13.0107010000         0.1634903809
        1.9622572000         0.2773515510
        0.4445379600         0.3157501452
s   1 1.0 
        0.1219496200         0.1470772262
p   1 1.0 
        0.8000000000         1.0784563492

 24 0
s   3 1.0 
       13.0107010000         0.1634903809
        1.9622572000         0.2773515510
        0.4445379600         0.3157501452
s   1 1.0 
        0.1219496200         0.1470772262
p   1 1.0 
        0.8000000000         1.0784563492

 25 0
s   3 1.0 
       13.0107010000         0.1634903809
        1.9622572000         0.2773515510
        0.4445379600         0.3157501452
s   1 1.0 
        0.1219496200         0.1470772262
p   1 1.0 
        0.8000000000         1.0784563492

 26 0
s   3 1.0 
       13.0107010000         0.1634903809
        1.9622572000         0.2773515510
        0.4445379600         0.3157501452
s   1 1.0 
        0.1219496200         0.1470772262
p   1 1.0 
        0.8000000000         1.0784563492

 27 0
s   3 1.0 
       13.0107010000         0.1634903809
        1.9622572000         0.2773515510
        0.4445379600         0.3157501452
s   1 1.0 
        0.1219496200         0.1470772262
p   1 1.0 
        0.8000000000         1.0784563492

 28 0
s   3 1.0 
       13.0107010000         0.1634903809
        1.9622572000         0.2773515510
        0.4445379600         0.3157501452
s   1 1.0 
        0.1219496200         0.1470772262
p   1 1.0 
        0.8000000000         1.0784563492

 29 0
s   3 1.0 
       13.0107010000         0.1634903809
        1.9622572000         0.2773515510
        0.4445379600         0.3157501452
s   1 1.0 
        0.1219496200         0.1470772262
p   1 1.0 
        0.8000000000         1.0784563492

 30 0
s   3 1.0 
       13.0107010000         0.1634903809
        1.9622572000         0.2773515510
        0.4445379600         0.3157501452
s   1 1.0 
        0.1219496200         0.1470772262
p   1 1.0 
        0.8000000000         1.0784563492

 31 0
s   3 1.0 
       13.0107010000         0.1634903809
        1.9622572000         0.2773515510
        0.4445379600         0.3157501452
s   1 1.0 
        0.1219496200         0.1470772262
p   1 1.0 
        0.8000000000         1.0784563492

 32 0
s   3 1.0 
       13.0107010000         0.1634903809
        1.9622572000         0.2773515510
        0.4445379600         0.3157501452
s   1 1.0 
        0.1219496200         0.1470772262
p   1 1.0 
        0.8000000000         1.0784563492

 33 0
s   3 1.0 
       13.0107010000         0.1634903809
        1.9622572000         0.2773515510
        0.4445379600         0.3157501452
s   1 1.0 
        0.1219496200         0.1470772262
p   1 1.0 
        0.8000000000         1.0784563492

 34 0
s   3 1.0 
       13.0107010000         0.1634903809
        1.9622572000         0.2773515510
        0.4445379600         0.3157501452
s   1 1.0 
        0.1219496200         0.1470772262
p   1 1.0 
        0.8000000000         1.0784563492

 35 0
s   3 1.0 
       13.0107010000         0.1634903809
        1.9622572000         0.2773515510
        0.4445379600         0.3157501452
s   1 1.0 
        0.1219496200         0.1470772262
p   1 1.0 
        0.8000000000         1.0784563492

[5D]
[7F]
[9G]
[MO]
 Sym=     1a
 Ene= -1.92104514944272E+01
 Spin= Alpha
 Occup= 2.000000
  1       0.000078940237
  2      -0.000245468766
  3       0.000890099869
  4      -0.000024217668
  5       0.000075644918
  6       0.000004694606
  7       0.000044788987
  8      -0.000577233521
  9      -0.000058241068
 10      -0.000094879854
 11       0.000024091320
 12       0.000019933563
 13      -0.000005871616
 14      -0.000003350238
 15      -0.000053951590
 16       0.000917945740
 17       0.015868062999
 18      -0.000187144273
 19      -0.000137295654
 20      -0.000043591504
 21      -0.003368212114
 22      -0.004395076510
 23      -0.001023017953
 24       0.000047049746
 25      -0.000004475181
 26      -0.000037578727
 27       0.000126439446
 28      -0.000090258200
 29      -0.000030755498
 30       0.000715549932
 31      -0.002028378756
 32       0.000063283054
 33       0.000173164169
 34       0.000028355734
 35       0.008683749111
 36      -0.005720835396
 37       0.000636567570
 38       0.000008785754
 39      -0.000095081483
 40      -0.000036112899
 41      -0.000274826081
 42      -0.000430279660
 43      -0.000001061124
 44       0.002481896646
 45      -0.001612843587
 46      -0.000071585774
 47       0.000160047835
 48       0.000008723633
 49      -0.018445264942
 50       0.001449776312
 51      -0.002575547962
 52       0.000303972164
 53      -0.000271468050
 54      -0.000059331699
 55      -0.000808718377
 56      -0.000579392343
 57       0.000009958088
 58       0.000104306977
 59       0.000117392434
 60       0.000061865260
 61      -0.000457339986
 62      -0.000042696746
 63       0.005129350602
 64       0.013348787718
 65       0.002269676336
 66       0.000012317604
 67       0.000000938316
 68       0.000028115866
 69      -0.000078305222
 70       0.000133448503
 71      -0.000023458159
 72       0.000456480192
 73       0.007040237620
 74       0.000149511083
 75      -0.000032632471
 76       0.000018563032
 77       0.002697834123
 78       0.007515557446
 79       0.001235475540
 80      -0.000009024890
 81       0.000034316645
 82       0.000018349223
 83       0.000080955303
 84       0.000174437629
 85      -0.000006964856
 86      -0.000031571386
 87      -0.000246795029
 88       0.000040257290
 89      -0.000038269789
 90       0.000001649430
 91      -0.004341544536
 92       0.001860867057
 93      -0.000418139204
 94      -0.000077326775
 95       0.000012145269
 96       0.000008704349
 97      -0.000009621374
 98      -0.000054328956
 99      -0.000002560301
100       0.000024817134
101       0.002115532261
102       0.000052605698
103       0.000045682271
104       0.000013251744
105      -0.003073107835
106      -0.001189457591
107      -0.000583422988
108      -0.000017186384
109       0.000014612706
110       0.000000651413
111       0.000052459357
112       0.000020370181
113       0.000111949474
114      -0.000086510173
115       0.000045127700
116       0.000029512057
117      -0.000026529299
118       0.000001131662
119      -0.000013976663
120       0.000238875554
121       0.000025751674
122      -0.000027156960
123       0.000003955527
124       0.000008499650
125      -0.000023082845
126       0.000002276241
127       0.000000063317
128      -0.000059583236
129       0.000391760229
130      -0.000007041148
131      -0.000006978210
132      -0.000001843101
133      -0.000102802606
134       0.000191893179
135       0.000006649583
136      -0.000008428371
137       0.000002564558
138       0.000000821534
139       0.000004329095
140      -0.000002762813
141      -0.000002168017
142      -0.000116107372
143      -0.000034013859
144       0.000019895779
145      -0.000037957626
146      -0.000001419674
147       0.000361479288
148      -0.001640466954
149      -0.000130701488
150      -0.000054407097
151       0.000003902668
152       0.000013965551
153      -0.000053721733
154      -0.000020672223
155       0.000033521630
156      -0.000641233558
157      -0.001779391386
158       0.000197240380
159      -0.000040053190
160       0.000023899718
161       0.001276552679
162      -0.002970269260
163      -0.000155602814
164      -0.000084483579
165       0.000040373828
166       0.000047827818
167      -0.000029215366
168       0.000183919055
169      -0.988345830377
170       0.045534078580
171      -0.045992304190
172       0.000721519330
173       0.001964061199
174       0.000331743221
175      -0.002031066676
176      -0.006670248247
177      -0.001062114416
178       0.000047994233
179      -0.000004147204
180      -0.000027415377
181       0.000096952115
182      -0.000046938254
183      -0.000041891314
184       0.002912319990
185      -0.008265799333
186       0.000114591973
187       0.000008180190
188       0.000019499085
189       0.013958658872
190      -0.015225962531
191       0.000342925801
192       0.000350134167
193       0.000081972814
194      -0.000011682149
195       0.000540129374
196       0.000786953650
197      -0.000030004777
198       0.000568959987
199       0.003124459159
200       0.000319405316
201       0.000178417186
202       0.000068241449
203      -0.014723454570
204      -0.003017275305
205      -0.002552384810
206       0.000004151905
207       0.000085713315
208       0.000030659533
209       0.000258068385
210       0.000393449465
211       0.000050009327
212      -0.000941488639
213      -0.007320465811
214      -0.000152653404
215       0.000232134564
216       0.000003331003
217       0.002797980054
218       0.002433866525
219       0.000699300128
220      -0.000106853003
221       0.000041117418
222      -0.000012311598
223       0.000163633616
224      -0.000103319915
225       0.000014653973
226      -0.000149422998
227       0.005695771218
228      -0.000042823687
229       0.000045948512
230      -0.000001133810
231       0.002021567964
232      -0.000527952086
233       0.000243436954
234      -0.000014191734
235       0.000016001396
236       0.000010058192
237       0.000027174701
238       0.000066019196
239       0.000040537126
240      -0.000029698035
241      -0.000013907224
242      -0.000040644528
243       0.000013466269
244      -0.000004575199
245       0.000231099491
246      -0.000109860647
247       0.000021880292
248      -0.000022982404
249       0.000002394343
250       0.000003096513
251      -0.000010547521
252      -0.000018888388
253      -0.000001338628
254      -0.000042464558
255       0.000445235605
256       0.000022289666
257       0.000022377821
258       0.000005867710
259       0.000177783656
260      -0.000220811875
261      -0.000000555978
262      -0.000006029848
263       0.000005130679
264       0.000001708069
265       0.000013987488
266       0.000012903289
267       0.000023417428
268      -0.000485352055
269      -0.005935109345
270      -0.000159927134
271       0.000140510585
272      -0.000007894420
273      -0.001377380583
274       0.000014929003
275      -0.000206664436
276      -0.000087788665
277       0.000008010514
278       0.000022467162
279      -0.000079199489
280      -0.000031400594
281       0.000001273288
282       0.000066502417
283       0.011223996489
284      -0.000161075836
285      -0.000055960644
286      -0.000030608388
287       0.001954377112
288       0.007359981025
289       0.001145162563
290      -0.000072318754
291      -0.000013656197
292       0.000099744085
293      -0.000413010950
294       0.000241752864
295      -0.000913777689
296      -0.002446432340
297      -0.000200845307
298       0.000241787907
299      -0.000002267111
300       0.000071299140
301       0.000484588844
302       0.000024044641
303      -0.000298783939
304      -0.000030270285
305      -0.000045764363
306       0.000055178201
307       0.000183107171
308      -0.000055522780
309       0.000020176213
310       0.000010731754
311       0.000054841282
312       0.000001679090
313       0.000004646267
314       0.000000786248
315      -0.000028110894
316      -0.000113567598
317       0.000005056408
318      -0.000011754227
319      -0.000014961984
320      -0.000028126290
321      -0.000113191302
322       0.000000999610
323      -0.000014920218
324       0.000012820451
325      -0.000045346319
326      -0.000063781595
327      -0.000020722204
328       0.000038103125
329       0.000001094926
330       0.000145606112
331       0.001055701705
332       0.000110545732
333      -0.000006787006
334       0.000015609357
335      -0.000127510215
336      -0.000126749008
337      -0.000148120295
338      -0.000062317467
339      -0.000029291005
340       0.000023922357
341       0.000086608716
342       0.000002688350
343      -0.000011614642
344      -0.000000788746
345      -0.000047729632
346      -0.000140813815
347      -0.000009829871
348       0.000013240150
349      -0.000019127168
350      -0.000047202307
351      -0.000139130369
352      -0.000015178085
353       0.000009011192
354       0.000017916736
355       0.000067860552
356       0.000444794334
357       0.000065510394
358       0.000051505521
359       0.000015751776
360       0.000534313290
361       0.001175404769
362      -0.000270766218
363      -0.000143888863
364      -0.000057649452
 Sym=     1a
 Ene= -1.91708379150957E+01
 Spin= Alpha
 Occup= 2.000000
  1      -0.000011682499
  2       0.000011650296
  3       0.000029064350
  4       0.000006512288
  5      -0.000004193761
  6       0.000000502722
  7      -0.000063451596
  8       0.000027104797
  9      -0.000006539180
 10      -0.000001305539
 11       0.000001371754
 12      -0.000000257638
 13       0.000005939558
 14       0.000000828367
 15      -0.000006674244
 16       0.000078589534
 17       0.001507122626
 18       0.000005166847
 19      -0.000017425080
 20      -0.000001356334
 21       0.000332511656
 22      -0.000749094437
 23      -0.000036573216
 24      -0.000001464344
 25      -0.000000203273
 26      -0.000000849535
 27       0.000001252128
 28      -0.000006894284
 29       0.000010592673
 30      -0.000098910310
 31      -0.001657743191
 32      -0.000003183212
 33       0.000055472228
 34       0.000006206423
 35       0.001393100286
 36      -0.000715426853
 37       0.000122474825
 38       0.000023244958
 39      -0.000010887574
 40      -0.000002009848
 41      -0.000028975719
 42      -0.000003800636
 43       0.000007770369
 44      -0.000050473846
 45      -0.003469298667
 46      -0.000000601827
 47      -0.000082615814
 48      -0.000009489090
 49      -0.002375592242
 50       0.003048434500
 51      -0.000000935160
 52       0.000040627901
 53       0.000001430981
 54       0.000002933808
 55       0.000013451128
 56       0.000084435494
 57      -0.000037845667
 58       0.000453071127
 59      -0.001584216455
 60       0.000089323849
 61      -0.000216949128
 62      -0.000011086360
 63      -0.001426933974
 64       0.005825696477
 65       0.000447731162
 66      -0.000000413967
 67      -0.000017514209
 68      -0.000007301369
 69      -0.000050475605
 70      -0.000087918395
 71      -0.000050067457
 72       0.000848895362
 73       0.008332290381
 74       0.000208865195
 75      -0.000143773509
 76       0.000013672823
 77       0.002115166677
 78       0.000996545383
 79       0.000423465075
 80       0.000082233026
 81      -0.000002714299
 82      -0.000027904551
 83       0.000116437814
 84       0.000013640823
 85       0.000017864339
 86      -0.000292127652
 87      -0.011483129947
 88       0.000134240594
 89       0.000029139092
 90       0.000024160224
 91      -0.004116147601
 92      -0.007482576086
 93      -0.001450539617
 94       0.000073802775