[Molden Format]
[Title]
 Molden file created by orca_2mkl for BaseName=input4cpu

[Atoms] AU
C    1   6         -7.0196360470         1.8084958996        -0.1681718797 
C    2   6         -8.0075305257         6.2387902011         0.1324510242 
H    3   1        -15.2713005797         3.2644325954         0.5378271461 
H    4   1        -13.4508053410         7.9432728934        -2.1615576576 
H    5   1          5.6416478655       -11.1747832645         0.0903091112 
H    6   1        -10.1418456992        -0.7067078338        -0.8401584954 
H    7   1        -14.8200316905         3.5875414151        -2.7532289068 
H    8   1          0.1128198078         2.8184293814         0.8788237107 
C    9   6         -6.1932805036         4.2972440325         0.1906030173 
C   10   6        -12.4585009322         7.8684827562        -0.3295775004 
C   11   6        -14.1036515584         2.6075514039        -1.0589785701 
C   12   6         -9.5746386952         1.2591354603        -0.5695892157 
O   13   8         -5.3759562010        -0.1782688494        -0.1455627102 
H   14   1         -2.2745448672        -8.5617333619        -0.6369912508 
C   15   6        -11.3567887297         3.1996571797        -0.6243007022 
H   16   1        -14.4125473573         0.5682938976        -1.3010043989 
C   17   6          5.1357386861        -9.1697693334         0.2487083931 
H   18   1        -11.5404620518         9.7049986067        -0.0141506822 
C   19   6        -10.5595774097         5.7494781926        -0.2677397130 
H   20   1         -4.7053005990        -4.5459776665        -0.5193854698 
H   21   1        -13.9280686068         7.6153223075         1.1270549438 
C   22   6          1.2086310990        -2.2120185170         0.5003456671 
C   23   6          2.5793980349        -4.4589069170         0.4359886069 
H   24   1          2.2348498212        -0.4533805745         0.8227730359 
O   25   8          2.4729128379        -9.0344677897        -0.0742669377 
C   26   6          1.3204857541        -6.7642687082         0.0231932799 
C   27   6         -1.3185444474        -6.7608393579        -0.3179958227 
H   28   1         -7.3426907917         8.1727701296         0.4124218814 
H   29   1          6.1336025800        -8.0874223515        -1.2269731116 
H   30   1          4.6195275579        -4.3979975170         0.7069784707 
H   31   1          5.7086218250        -8.4595483855         2.1228247460 
C   32   6         -2.6634794730        -4.5112970131        -0.2499673418 
C   33   6         -1.4274404357        -2.1821523716         0.1601249304 
C   34   6         -2.8706554315         0.1899017291         0.2193503761 
C   35   6         -1.9081914998         2.5600676704         0.5879510061 
C   36   6         -3.4804614660         4.8066535326         0.6084479803 
O   37   8         -2.6382361203         6.9606040649         0.9419203156 
[GTO]
  1 0
s   5 1.0 
     1238.4016938000         0.8208956682
      186.2900499200         1.4766449896
       42.2511763460         2.1526124058
       11.6765579320         2.1081722461
        3.5930506482         0.8290999933
s   1 1.0 
        0.4024514736         0.3601183351
s   1 1.0 
        0.1309018267         0.1551027052
p   3 1.0 
        9.4680970621         1.3467645142
        2.0103545142         1.0678070931
        0.5477100471         0.5108735714
p   1 1.0 
        0.1526861379         0.1360471976
d   1 1.0 
        0.8000000000         1.9292013661

  2 0
s   5 1.0 
     1238.4016938000         0.8208956682
      186.2900499200         1.4766449896
       42.2511763460         2.1526124058
       11.6765579320         2.1081722461
        3.5930506482         0.8290999933
s   1 1.0 
        0.4024514736         0.3601183351
s   1 1.0 
        0.1309018267         0.1551027052
p   3 1.0 
        9.4680970621         1.3467645142
        2.0103545142         1.0678070931
        0.5477100471         0.5108735714
p   1 1.0 
        0.1526861379         0.1360471976
d   1 1.0 
        0.8000000000         1.9292013661

  3 0
s   3 1.0 
       13.0107010000         0.1634903809
        1.9622572000         0.2773515510
        0.4445379600         0.3157501452
s   1 1.0 
        0.1219496200         0.1470772262
p   1 1.0 
        0.8000000000         1.0784563492

  4 0
s   3 1.0 
       13.0107010000         0.1634903809
        1.9622572000         0.2773515510
        0.4445379600         0.3157501452
s   1 1.0 
        0.1219496200         0.1470772262
p   1 1.0 
        0.8000000000         1.0784563492

  5 0
s   3 1.0 
       13.0107010000         0.1634903809
        1.9622572000         0.2773515510
        0.4445379600         0.3157501452
s   1 1.0 
        0.1219496200         0.1470772262
p   1 1.0 
        0.8000000000         1.0784563492

  6 0
s   3 1.0 
       13.0107010000         0.1634903809
        1.9622572000         0.2773515510
        0.4445379600         0.3157501452
s   1 1.0 
        0.1219496200         0.1470772262
p   1 1.0 
        0.8000000000         1.0784563492

  7 0
s   3 1.0 
       13.0107010000         0.1634903809
        1.9622572000         0.2773515510
        0.4445379600         0.3157501452
s   1 1.0 
        0.1219496200         0.1470772262
p   1 1.0 
        0.8000000000         1.0784563492

  8 0
s   3 1.0 
       13.0107010000         0.1634903809
        1.9622572000         0.2773515510
        0.4445379600         0.3157501452
s   1 1.0 
        0.1219496200         0.1470772262
p   1 1.0 
        0.8000000000         1.0784563492

  9 0
s   5 1.0 
     1238.4016938000         0.8208956682
      186.2900499200         1.4766449896
       42.2511763460         2.1526124058
       11.6765579320         2.1081722461
        3.5930506482         0.8290999933
s   1 1.0 
        0.4024514736         0.3601183351
s   1 1.0 
        0.1309018267         0.1551027052
p   3 1.0 
        9.4680970621         1.3467645142
        2.0103545142         1.0678070931
        0.5477100471         0.5108735714
p   1 1.0 
        0.1526861379         0.1360471976
d   1 1.0 
        0.8000000000         1.9292013661

 10 0
s   5 1.0 
     1238.4016938000         0.8208956682
      186.2900499200         1.4766449896
       42.2511763460         2.1526124058
       11.6765579320         2.1081722461
        3.5930506482         0.8290999933
s   1 1.0 
        0.4024514736         0.3601183351
s   1 1.0 
        0.1309018267         0.1551027052
p   3 1.0 
        9.4680970621         1.3467645142
        2.0103545142         1.0678070931
        0.5477100471         0.5108735714
p   1 1.0 
        0.1526861379         0.1360471976
d   1 1.0 
        0.8000000000         1.9292013661

 11 0
s   5 1.0 
     1238.4016938000         0.8208956682
      186.2900499200         1.4766449896
       42.2511763460         2.1526124058
       11.6765579320         2.1081722461
        3.5930506482         0.8290999933
s   1 1.0 
        0.4024514736         0.3601183351
s   1 1.0 
        0.1309018267         0.1551027052
p   3 1.0 
        9.4680970621         1.3467645142
        2.0103545142         1.0678070931
        0.5477100471         0.5108735714
p   1 1.0 
        0.1526861379         0.1360471976
d   1 1.0 
        0.8000000000         1.9292013661

 12 0
s   5 1.0 
     1238.4016938000         0.8208956682
      186.2900499200         1.4766449896
       42.2511763460         2.1526124058
       11.6765579320         2.1081722461
        3.5930506482         0.8290999933
s   1 1.0 
        0.4024514736         0.3601183351
s   1 1.0 
        0.1309018267         0.1551027052
p   3 1.0 
        9.4680970621         1.3467645142
        2.0103545142         1.0678070931
        0.5477100471         0.5108735714
p   1 1.0 
        0.1526861379         0.1360471976
d   1 1.0 
        0.8000000000         1.9292013661

 13 0
s   5 1.0 
     2266.1767785000        -1.2615859742
      340.8701019100        -2.2748500410
       77.3631351670        -3.3479623295
       21.4796449400        -3.3299980531
        6.6589433124        -1.3203828288
s   1 1.0 
        0.8097597567         0.6083832301
s   1 1.0 
        0.2553077223         0.2559811911
p   3 1.0 
       17.7215043170         3.2460107647
        3.8635505440         2.5734959178
        1.0480920883         1.1208372892
p   1 1.0 
        0.2764154441         0.2856886381
d   1 1.0 
        1.2000000000         3.9222679946

 14 0
s   3 1.0 
       13.0107010000         0.1634903809
        1.9622572000         0.2773515510
        0.4445379600         0.3157501452
s   1 1.0 
        0.1219496200         0.1470772262
p   1 1.0 
        0.8000000000         1.0784563492

 15 0
s   5 1.0 
     1238.4016938000         0.8208956682
      186.2900499200         1.4766449896
       42.2511763460         2.1526124058
       11.6765579320         2.1081722461
        3.5930506482         0.8290999933
s   1 1.0 
        0.4024514736         0.3601183351
s   1 1.0 
        0.1309018267         0.1551027052
p   3 1.0 
        9.4680970621         1.3467645142
        2.0103545142         1.0678070931
        0.5477100471         0.5108735714
p   1 1.0 
        0.1526861379         0.1360471976
d   1 1.0 
        0.8000000000         1.9292013661

 16 0
s   3 1.0 
       13.0107010000         0.1634903809
        1.9622572000         0.2773515510
        0.4445379600         0.3157501452
s   1 1.0 
        0.1219496200         0.1470772262
p   1 1.0 
        0.8000000000         1.0784563492

 17 0
s   5 1.0 
     1238.4016938000         0.8208956682
      186.2900499200         1.4766449896
       42.2511763460         2.1526124058
       11.6765579320         2.1081722461
        3.5930506482         0.8290999933
s   1 1.0 
        0.4024514736         0.3601183351
s   1 1.0 
        0.1309018267         0.1551027052
p   3 1.0 
        9.4680970621         1.3467645142
        2.0103545142         1.0678070931
        0.5477100471         0.5108735714
p   1 1.0 
        0.1526861379         0.1360471976
d   1 1.0 
        0.8000000000         1.9292013661

 18 0
s   3 1.0 
       13.0107010000         0.1634903809
        1.9622572000         0.2773515510
        0.4445379600         0.3157501452
s   1 1.0 
        0.1219496200         0.1470772262
p   1 1.0 
        0.8000000000         1.0784563492

 19 0
s   5 1.0 
     1238.4016938000         0.8208956682
      186.2900499200         1.4766449896
       42.2511763460         2.1526124058
       11.6765579320         2.1081722461
        3.5930506482         0.8290999933
s   1 1.0 
        0.4024514736         0.3601183351
s   1 1.0 
        0.1309018267         0.1551027052
p   3 1.0 
        9.4680970621         1.3467645142
        2.0103545142         1.0678070931
        0.5477100471         0.5108735714
p   1 1.0 
        0.1526861379         0.1360471976
d   1 1.0 
        0.8000000000         1.9292013661

 20 0
s   3 1.0 
       13.0107010000         0.1634903809
        1.9622572000         0.2773515510
        0.4445379600         0.3157501452
s   1 1.0 
        0.1219496200         0.1470772262
p   1 1.0 
        0.8000000000         1.0784563492

 21 0
s   3 1.0 
       13.0107010000         0.1634903809
        1.9622572000         0.2773515510
        0.4445379600         0.3157501452
s   1 1.0 
        0.1219496200         0.1470772262
p   1 1.0 
        0.8000000000         1.0784563492

 22 0
s   5 1.0 
     1238.4016938000         0.8208956682
      186.2900499200         1.4766449896
       42.2511763460         2.1526124058
       11.6765579320         2.1081722461
        3.5930506482         0.8290999933
s   1 1.0 
        0.4024514736         0.3601183351
s   1 1.0 
        0.1309018267         0.1551027052
p   3 1.0 
        9.4680970621         1.3467645142
        2.0103545142         1.0678070931
        0.5477100471         0.5108735714
p   1 1.0 
        0.1526861379         0.1360471976
d   1 1.0 
        0.8000000000         1.9292013661

 23 0
s   5 1.0 
     1238.4016938000         0.8208956682
      186.2900499200         1.4766449896
       42.2511763460         2.1526124058
       11.6765579320         2.1081722461
        3.5930506482         0.8290999933
s   1 1.0 
        0.4024514736         0.3601183351
s   1 1.0 
        0.1309018267         0.1551027052
p   3 1.0 
        9.4680970621         1.3467645142
        2.0103545142         1.0678070931
        0.5477100471         0.5108735714
p   1 1.0 
        0.1526861379         0.1360471976
d   1 1.0 
        0.8000000000         1.9292013661

 24 0
s   3 1.0 
       13.0107010000         0.1634903809
        1.9622572000         0.2773515510
        0.4445379600         0.3157501452
s   1 1.0 
        0.1219496200         0.1470772262
p   1 1.0 
        0.8000000000         1.0784563492

 25 0
s   5 1.0 
     2266.1767785000        -1.2615859742
      340.8701019100        -2.2748500410
       77.3631351670        -3.3479623295
       21.4796449400        -3.3299980531
        6.6589433124        -1.3203828288
s   1 1.0 
        0.8097597567         0.6083832301
s   1 1.0 
        0.2553077223         0.2559811911
p   3 1.0 
       17.7215043170         3.2460107647
        3.8635505440         2.5734959178
        1.0480920883         1.1208372892
p   1 1.0 
        0.2764154441         0.2856886381
d   1 1.0 
        1.2000000000         3.9222679946

 26 0
s   5 1.0 
     1238.4016938000         0.8208956682
      186.2900499200         1.4766449896
       42.2511763460         2.1526124058
       11.6765579320         2.1081722461
        3.5930506482         0.8290999933
s   1 1.0 
        0.4024514736         0.3601183351
s   1 1.0 
        0.1309018267         0.1551027052
p   3 1.0 
        9.4680970621         1.3467645142
        2.0103545142         1.0678070931
        0.5477100471         0.5108735714
p   1 1.0 
        0.1526861379         0.1360471976
d   1 1.0 
        0.8000000000         1.9292013661

 27 0
s   5 1.0 
     1238.4016938000         0.8208956682
      186.2900499200         1.4766449896
       42.2511763460         2.1526124058
       11.6765579320         2.1081722461
        3.5930506482         0.8290999933
s   1 1.0 
        0.4024514736         0.3601183351
s   1 1.0 
        0.1309018267         0.1551027052
p   3 1.0 
        9.4680970621         1.3467645142
        2.0103545142         1.0678070931
        0.5477100471         0.5108735714
p   1 1.0 
        0.1526861379         0.1360471976
d   1 1.0 
        0.8000000000         1.9292013661

 28 0
s   3 1.0 
       13.0107010000         0.1634903809
        1.9622572000         0.2773515510
        0.4445379600         0.3157501452
s   1 1.0 
        0.1219496200         0.1470772262
p   1 1.0 
        0.8000000000         1.0784563492

 29 0
s   3 1.0 
       13.0107010000         0.1634903809
        1.9622572000         0.2773515510
        0.4445379600         0.3157501452
s   1 1.0 
        0.1219496200         0.1470772262
p   1 1.0 
        0.8000000000         1.0784563492

 30 0
s   3 1.0 
       13.0107010000         0.1634903809
        1.9622572000         0.2773515510
        0.4445379600         0.3157501452
s   1 1.0 
        0.1219496200         0.1470772262
p   1 1.0 
        0.8000000000         1.0784563492

 31 0
s   3 1.0 
       13.0107010000         0.1634903809
        1.9622572000         0.2773515510
        0.4445379600         0.3157501452
s   1 1.0 
        0.1219496200         0.1470772262
p   1 1.0 
        0.8000000000         1.0784563492

 32 0
s   5 1.0 
     1238.4016938000         0.8208956682
      186.2900499200         1.4766449896
       42.2511763460         2.1526124058
       11.6765579320         2.1081722461
        3.5930506482         0.8290999933
s   1 1.0 
        0.4024514736         0.3601183351
s   1 1.0 
        0.1309018267         0.1551027052
p   3 1.0 
        9.4680970621         1.3467645142
        2.0103545142         1.0678070931
        0.5477100471         0.5108735714
p   1 1.0 
        0.1526861379         0.1360471976
d   1 1.0 
        0.8000000000         1.9292013661

 33 0
s   5 1.0 
     1238.4016938000         0.8208956682
      186.2900499200         1.4766449896
       42.2511763460         2.1526124058
       11.6765579320         2.1081722461
        3.5930506482         0.8290999933
s   1 1.0 
        0.4024514736         0.3601183351
s   1 1.0 
        0.1309018267         0.1551027052
p   3 1.0 
        9.4680970621         1.3467645142
        2.0103545142         1.0678070931
        0.5477100471         0.5108735714
p   1 1.0 
        0.1526861379         0.1360471976
d   1 1.0 
        0.8000000000         1.9292013661

 34 0
s   5 1.0 
     1238.4016938000         0.8208956682
      186.2900499200         1.4766449896
       42.2511763460         2.1526124058
       11.6765579320         2.1081722461
        3.5930506482         0.8290999933
s   1 1.0 
        0.4024514736         0.3601183351
s   1 1.0 
        0.1309018267         0.1551027052
p   3 1.0 
        9.4680970621         1.3467645142
        2.0103545142         1.0678070931
        0.5477100471         0.5108735714
p   1 1.0 
        0.1526861379         0.1360471976
d   1 1.0 
        0.8000000000         1.9292013661

 35 0
s   5 1.0 
     1238.4016938000         0.8208956682
      186.2900499200         1.4766449896
       42.2511763460         2.1526124058
       11.6765579320         2.1081722461
        3.5930506482         0.8290999933
s   1 1.0 
        0.4024514736         0.3601183351
s   1 1.0 
        0.1309018267         0.1551027052
p   3 1.0 
        9.4680970621         1.3467645142
        2.0103545142         1.0678070931
        0.5477100471         0.5108735714
p   1 1.0 
        0.1526861379         0.1360471976
d   1 1.0 
        0.8000000000         1.9292013661

 36 0
s   5 1.0 
     1238.4016938000         0.8208956682
      186.2900499200         1.4766449896
       42.2511763460         2.1526124058
       11.6765579320         2.1081722461
        3.5930506482         0.8290999933
s   1 1.0 
        0.4024514736         0.3601183351
s   1 1.0 
        0.1309018267         0.1551027052
p   3 1.0 
        9.4680970621         1.3467645142
        2.0103545142         1.0678070931
        0.5477100471         0.5108735714
p   1 1.0 
        0.1526861379         0.1360471976
d   1 1.0 
        0.8000000000         1.9292013661

 37 0
s   5 1.0 
     2266.1767785000        -1.2615859742
      340.8701019100        -2.2748500410
       77.3631351670        -3.3479623295
       21.4796449400        -3.3299980531
        6.6589433124        -1.3203828288
s   1 1.0 
        0.8097597567         0.6083832301
s   1 1.0 
        0.2553077223         0.2559811911
p   3 1.0 
       17.7215043170         3.2460107647
        3.8635505440         2.5734959178
        1.0480920883         1.1208372892
p   1 1.0 
        0.2764154441         0.2856886381
d   1 1.0 
        1.2000000000         3.9222679946

[5D]
[7F]
[9G]
[MO]
 Sym=     1a
 Ene= -1.92097861686838E+01
 Spin= Alpha
 Occup= 2.000000
  1      -0.000042571109
  2       0.002967179614
  3      -0.007903276092
  4       0.000094486992
  5       0.000005795059
  6       0.000013654180
  7       0.013865616506
  8      -0.015583228869
  9       0.000315381004
 10       0.000357700837
 11       0.000068692436
 12      -0.000011889432
 13       0.000559600427
 14       0.000765492156
 15       0.000047573789
 16      -0.000906215574
 17      -0.006269835806
 18      -0.000188737819
 19       0.000239220145
 20      -0.000003275869
 21       0.002894561301
 22       0.001814047609
 23       0.000569733999
 24      -0.000106510207
 25       0.000035674860
 26      -0.000007446722
 27       0.000144905320
 28      -0.000093953846
 29      -0.000125729535
 30      -0.000252972257
 31      -0.000030579343
 32      -0.000019892812
 33      -0.000014292850
 34       0.000038301577
 35       0.000003482022
 36      -0.000018091173
 37       0.000009376488
 38       0.000017691023
 39       0.000010911817
 40       0.000054803472
 41       0.000001628155
 42       0.000004522512
 43       0.000000732040
 44       0.000474111969
 45       0.000862483831
 46      -0.000280291484
 47      -0.000138711374
 48      -0.000052223900
 49      -0.000125889047
 50      -0.000252753604
 51      -0.000033072422
 52      -0.000021447708
 53       0.000001499426
 54      -0.000907510180
 55      -0.002450251413
 56      -0.000194382479
 57       0.000239448976
 58      -0.000002198073
 59      -0.000029792024
 60       0.000564770986
 61       0.002411312120
 62       0.000314134357
 63       0.000178250289
 64       0.000060404024
 65      -0.014674495792
 66      -0.003116327612
 67      -0.002288362887
 68       0.000002296438
 69       0.000078607891
 70       0.000026241232
 71       0.000279350806
 72       0.000394916791
 73       0.000007081000
 74      -0.000098001910
 75      -0.000699978112
 76      -0.000056565524
 77       0.000012333114
 78      -0.000006696802
 79      -0.000066180107
 80       0.000095081448
 81      -0.000002260891
 82      -0.000033137481
 83       0.000005067054
 84       0.000008616577
 85      -0.000024546705
 86       0.000002937269
 87       0.000008246631
 88      -0.000331427186
 89       0.004140330124
 90       0.000049397135
 91       0.000023790498
 92       0.000009169022
 93       0.001650974019
 94       0.000497789587
 95       0.000275969092
 96      -0.000032758098
 97       0.000021960074
 98       0.000005610830
 99       0.000066314160
100       0.000045397676
101       0.000005790616
102      -0.000017393265
103       0.010712545686
104      -0.000162550557
105      -0.000075364644
106      -0.000028753338
107       0.001714851145
108       0.006702674718
109       0.000900311803
110      -0.000072892384
111      -0.000005339253
112       0.000084012170
113      -0.000365215804
114       0.000250762007
115      -0.988343801404
116       0.045563849139
117      -0.046105305280
118       0.000741961272
119       0.001962885049
120       0.000290526662
121      -0.002071248161
122      -0.006715082865
123      -0.000929461589
124       0.000053583640
125      -0.000005271657
126      -0.000024626080
127       0.000093132667
128      -0.000048485325
129      -0.000047149039
130       0.000045022177
131       0.000181432547
132      -0.000057955144
133       0.000017576033
134       0.000014998906
135      -0.000316851698
136      -0.007066201490
137      -0.000297961939
138       0.000093783326
139      -0.000031691633
140       0.001503660599
141       0.000876457312
142       0.000286529593
143      -0.000069828101
144      -0.000002903712
145       0.000019676633
146      -0.000117321951
147      -0.000029980193
148      -0.000095170352
149      -0.000045277408
150       0.000002632896
151       0.000027263316
152       0.000002931568
153       0.000000025375
154      -0.000058873439
155       0.000387759430
156      -0.000007257808
157      -0.000006841649
158      -0.000001650521
159      -0.000098390015
160       0.000192589891
161       0.000008729485
162      -0.000008409001
163       0.000002096482
164       0.000000753128
165       0.000004215415
166      -0.000002935551
167      -0.000042303740
168       0.000163781454
169      -0.000002030654
170       0.000002431712
171       0.000000108596
172       0.000017328519
173      -0.000183371202
174       0.004832864401
175      -0.000026431962
176       0.000061786009
177       0.000002532594
178       0.001045317566
179       0.000633051128
180       0.000209371649
181      -0.000012730491
182       0.000016553743
183       0.000008142469
184       0.000044295432
185       0.000071960226
186       0.000072711214
187       0.000524111246
188       0.000023768807
189      -0.000296975267
190      -0.000029674420
191       0.000039509315
192       0.000003764770
193      -0.000012011191
194       0.000013581847
195      -0.000019237498
196       0.000033498705
197      -0.000640014216
198      -0.001752327261
199       0.000196644214
200      -0.000043339719
201       0.000021229754
202       0.001192958136
203      -0.002946923111
204      -0.000160049275
205      -0.000085635041
206       0.000037136522
207       0.000042684105
208      -0.000022356724
209       0.000184329651
210      -0.000002329007
211      -0.000112420822
212      -0.000014364103
213       0.000018580978
214      -0.000037755864
215      -0.000001780729
216       0.000337944564
217      -0.001617873966
218      -0.000131739864
219      -0.000054137301
220       0.000003331616
221       0.000013721726
222      -0.000054074042
223      -0.000018874867
224       0.000142560713
225       0.001054960443
226       0.000110112545
227      -0.000008584118
228       0.000013575162
229       0.000110603675
230      -0.000084276509
231       0.000037487045
232       0.000028788424
233      -0.000026500831
234       0.000000835797
235      -0.000008371287
236       0.000234365773
237       0.000024294461
238      -0.000027082686
239       0.000003659672
240       0.000008080373
241      -0.000022688347
242       0.000003167087
243      -0.000002798377
244       0.000028927064
245       0.002118370510
246       0.000052730538
247       0.000045008934
248       0.000011565619
249      -0.003074102574
250      -0.001147847730
251      -0.000520448710
252      -0.000017346498
253       0.000012786586
254       0.000000062005
255       0.000052676386
256       0.000018643645
257      -0.000006943221
258      -0.000030548025
259      -0.000255090654
260       0.000039713826
261      -0.000038378414
262       0.000001215376
263      -0.004307092956
264       0.001890724885
265      -0.000357023841
266      -0.000077005123
267       0.000010701013
268       0.000008495885
269      -0.000010290759
270      -0.000053735918
271      -0.000089594220
272      -0.000122732359
273      -0.000147524478
274      -0.000041238956
275      -0.000023789624
276      -0.000027970764
277      -0.000112761591
278       0.000004520870
279      -0.000011689791
280      -0.000015003686
281      -0.000045885590
282      -0.000068362629
283      -0.000019935871
284       0.000037726339
285       0.000001522414
286      -0.000028038276
287      -0.000112703275
288       0.000001168422
289      -0.000014810246
290       0.000012764897
291      -0.000023185700
292       0.000453450790
293       0.006997333491
294       0.000146645177
295      -0.000035170758
296       0.000014704903
297       0.002836711084
298       0.007446075195
299       0.001175156234
300      -0.000008415486
301       0.000032173811
302       0.000015887342
303       0.000083453741
304       0.000172601572
305       0.000011316235
306       0.000092253809
307      -0.000051074273
308       0.000056661633
309      -0.000457119471
310      -0.000041260956
311       0.005329511085
312       0.013158386492
313       0.002086682798
314       0.000013790527
315       0.000001647608
316       0.000022529587
317      -0.000073165371
318       0.000137265259
319      -0.000004650078
320       0.002483749420
321      -0.001636010286
322      -0.000090520191
323       0.000166813363
324       0.000005044024
325      -0.018268481586
326       0.001544369150
327      -0.002231635358
328       0.000308558071
329      -0.000237098922
330      -0.000047411421
331      -0.000814536647
332      -0.000562586030
333      -0.000031578131
334       0.000724826438
335      -0.001816685580
336       0.000064396899
337       0.000170059204
338       0.000024615029
339       0.008514591910
340      -0.005758986974
341       0.000538620535
342       0.000012010023
343      -0.000085485906
344      -0.000028218435
345      -0.000287821773
346      -0.000422392315
347      -0.000054726944
348       0.000940310237
349       0.015840565818
350      -0.000188506936
351      -0.000135319115
352      -0.000038837846
353      -0.003502859139
354      -0.004224209265
355      -0.000913876547
356       0.000052938827
357      -0.000006032675
358      -0.000034382739
359       0.000121081171
360      -0.000097627691
361       0.000075769457
362      -0.000238507487
363       0.000837994053
364      -0.000021022375
365       0.000075227468
366       0.000004067846
367       0.000037591170
368      -0.000570328924
369      -0.000049819539
370      -0.000096757774
371       0.000021911670
372       0.000017661688
373      -0.000006030709
374      -0.000003383107
 Sym=     1a
 Ene= -1.91705552010368E+01
 Spin= Alpha
 Occup= 2.000000
  1       0.000004572501
  2      -0.000093949261
  3      -0.000515487670
  4      -0.000061217894
  5       0.000000378094
  6      -0.000008553619
  7       0.000794142080
  8       0.000242822878
  9       0.000132298093
 10      -0.000003817596
 11      -0.000000811053
 12       0.000001227797
 13      -0.000009312561
 14      -0.000002733032
 15      -0.000002421991
 16       0.000009222681
 17       0.000848091583
 18       0.000011830846
 19      -0.000000799914
 20       0.000001566621
 21      -0.000038081517
 22      -0.000314862206
 23      -0.000036116134
 24      -0.000009119965
 25       0.000001956275
 26       0.000000280888
 27       0.000003125266
 28      -0.000007127905
 29      -0.000001649887
 30      -0.000007380144
 31      -0.000002339426
 32       0.000000136317
 33      -0.000002390474
 34       0.000000533988
 35       0.000007047422
 36      -0.000004168912
 37       0.000000710297
 38       0.000002042076
 39      -0.000921636146
 40      -0.000913664456
 41       0.000150003172
 42      -0.000220748685
 43      -0.000005124793
 44       0.000005176796
 45      -0.000081610031
 46      -0.000017752257
 47      -0.000001980962
 48      -0.000002576334
 49      -0.000001586418
 50      -0.000006949432
 51      -0.000002852320
 52      -0.000000283289
 53       0.000001690865
 54       0.000117413943
 55       0.000079416649
 56       0.000009019118
 57       0.000023859856
 58       0.000003635670